 Q-Chem 5.1, Q-Chem, Inc., Pleasanton, CA (2018)
 Q-Chem 5.1.1 for Intel X86 EM64T Linux

User input:
--------------------------------------------------------------
$rem
   JOBTYPE  freq
   EXCHANGE   wb97x-d
   BASIS   def2-svp
   UNRESTRICTED   False
   max_scf_cycles   250
   geom_opt_max_cycles   1
   SYM_IGNORE  TRUE
   print_input   true
   geom_opt_dmax   80
   pop_mulliken false
   XC_GRID 000075000302
$end

$molecule
0 1
C       16.3674602835     5.6237254924     8.7184599556
H       15.3526829875     3.7221555427     8.5377243732
C       15.3393034082     4.7123863008     8.0536965105
H       15.6284131643     4.5351645911     7.0052851098
H       13.5938059604     5.4391129271     9.1427179774
C       13.9276154852     5.2883318758     8.1021093940
H       13.1872078085     4.6292277223     7.6253752430
H       13.8736326157     6.2610445865     7.5859406170
H       16.1502990327     5.7496846192     9.7941828306
H       16.3875242484     6.6150787665     8.2320434297
H       17.3872259358     5.2160727877     8.6517847104
$end
--------------------------------------------------------------

             Standard Nuclear Orientation (Angstroms)
    I     Atom           X                Y                Z
 ----------------------------------------------------------------
    1      C      16.3674602835     5.6237254924     8.7184599556
    2      H      15.3526829875     3.7221555427     8.5377243732
    3      C      15.3393034082     4.7123863008     8.0536965105
    4      H      15.6284131643     4.5351645911     7.0052851098
    5      H      13.5938059604     5.4391129271     9.1427179774
    6      C      13.9276154852     5.2883318758     8.1021093940
    7      H      13.1872078085     4.6292277223     7.6253752430
    8      H      13.8736326157     6.2610445865     7.5859406170
    9      H      16.1502990327     5.7496846192     9.7941828306
   10      H      16.3875242484     6.6150787665     8.2320434297
   11      H      17.3872259358     5.2160727877     8.6517847104
 ----------------------------------------------------------------

   11    -119.0206274753      7.65e-09  Convergence criterion met
 Total energy in the final basis set =     -119.0206274753

                    Orbital Energies (a.u.)
 --------------------------------------------------------------

 Alpha MOs
 -- Occupied --
-10.291 -10.286 -10.285  -0.871  -0.767  -0.668  -0.542  -0.521
 -0.478  -0.462  -0.419  -0.415  -0.405

                    Cartesian Multipole Moments
 -----------------------------------------------------------------
    Charge (ESU x 10^10)
                 0.0000
    Dipole Moment (Debye)
         X       0.0177      Y      -0.0566      Z      -0.0257
       Tot       0.0647
    Quadrupole Moments (Debye-Ang)
        XX     -21.3208     XY      -0.7588     YY     -22.2316
        XZ      -0.3462     YZ      -0.8323     ZZ     -21.7987

 Frequency:       227.87                 294.26                 373.11
 Force Cnst:      0.0316                 0.0575                 0.1662
 Red. Mass:       1.0339                 1.1277                 2.0267
 IR Intens:        0.000                  0.009                  0.148
 Frequency:       757.48                 893.10                 917.38
 Force Cnst:      0.3661                 1.1211                 0.5467
 Red. Mass:       1.0829                 2.3856                 1.1027
 IR Intens:        4.178                  1.209                  0.001
 Frequency:       930.57                1082.65                1174.89
 Force Cnst:      0.6033                 1.4987                 1.4878
 Red. Mass:       1.1824                 2.1701                 1.8294
 IR Intens:        2.687                  0.323                  1.729
 Frequency:      1207.41                1308.46                1355.58
 Force Cnst:      1.4294                 1.1372                 1.4616
 Red. Mass:       1.6641                 1.1274                 1.3500
 IR Intens:        0.417                  0.001                  2.164
 Frequency:      1414.53                1416.39                1473.16
 Force Cnst:      1.6630                 1.4946                 1.3278
 Red. Mass:       1.4106                 1.2644                 1.0384
 IR Intens:        6.567                  2.837                  0.386
 Frequency:      1475.63                1477.71                1492.06
 Force Cnst:      1.3295                 1.3661                 1.4328
 Red. Mass:       1.0363                 1.0618                 1.0924
 IR Intens:        0.382                  1.684                  5.555
 Frequency:      1494.40                3027.98                3043.12
 Force Cnst:      1.3704                 5.6154                 5.6694
 Red. Mass:       1.0415                 1.0395                 1.0391
 IR Intens:       13.205                 25.380                 26.025
 Frequency:      3065.31                3102.55                3121.00
 Force Cnst:      5.8851                 6.2585                 6.3448
 Red. Mass:       1.0630                 1.1035                 1.1056
 IR Intens:       29.492                  0.021                  8.760
 Frequency:      3134.86                3138.41                3145.64
 Force Cnst:      6.3961                 6.3832                 6.4228
 Red. Mass:       1.1047                 1.0999                 1.1017
 IR Intens:       69.443                 30.099                 30.601

 STANDARD THERMODYNAMIC QUANTITIES AT   298.15 K  AND     1.00 ATM

   This Molecule has  0 Imaginary Frequencies
   Zero point vibrational energy:       65.111 kcal/mol

   Atom    1 Element C  Has Mass   12.00000
   Atom    2 Element H  Has Mass    1.00783
   Atom    3 Element C  Has Mass   12.00000
   Atom    4 Element H  Has Mass    1.00783
   Atom    5 Element H  Has Mass    1.00783
   Atom    6 Element C  Has Mass   12.00000
   Atom    7 Element H  Has Mass    1.00783
   Atom    8 Element H  Has Mass    1.00783
   Atom    9 Element H  Has Mass    1.00783
   Atom   10 Element H  Has Mass    1.00783
   Atom   11 Element H  Has Mass    1.00783
   Molecular Mass:    44.062640 amu
   Principal axes and moments of inertia in amu*Bohr^2:
                             1           2           3
    Eigenvalues --       61.56486   214.50924   241.85600
          X               0.96122    -0.22626    -0.15765
          Y               0.13148     0.87854    -0.45921
          Z               0.24241     0.42068     0.87422
   Rotational Symmetry Number is   1
   The Molecule is an Asymmetric Top
   Translational Enthalpy:        0.889 kcal/mol
   Rotational Enthalpy:           0.889 kcal/mol
   Vibrational Enthalpy:         66.146 kcal/mol
   gas constant (RT):             0.592 kcal/mol
   Translational Entropy:        37.275  cal/mol.K
   Rotational Entropy:           22.684  cal/mol.K
   Vibrational Entropy:           5.352  cal/mol.K

   Total Enthalpy:               68.516 kcal/mol
   Total Entropy:                65.311  cal/mol.K

 Total job time:  53.61s(wall), 965.10s(cpu)
        *  Thank you very much for using Q-Chem.  Have a nice day.  *
