 Q-Chem 5.1, Q-Chem, Inc., Pleasanton, CA (2018)
 Q-Chem 5.1.1 for Intel X86 EM64T Linux

User input:
--------------------------------------------------------------
$rem
   JOBTYPE  freq
   EXCHANGE   wb97x-d
   BASIS   def2-svp
   UNRESTRICTED   False
   max_scf_cycles   250
   geom_opt_max_cycles   1
   SYM_IGNORE  TRUE
   print_input   true
   geom_opt_dmax   80
   pop_mulliken false
   XC_GRID 000075000302
$end

$molecule
0 1
C       0.4711928389     2.4702634876     -4.0293017421
C       -0.4304275161     3.2868767312     -3.1141581478
H       -0.4849997756     2.8413105302     -2.1051886725
H       -0.0330219572     4.2985501055     -2.9564840124
H       -1.4418946458     3.4092116475     -3.5368282440
H       1.4690987929     2.3541677752     -3.5854527763
H       0.5855085825     2.9627583898     -5.0034994727
H       0.0731290800     1.4603452951     -4.2100707475
$end
--------------------------------------------------------------

             Standard Nuclear Orientation (Angstroms)
    I     Atom           X                Y                Z
 ----------------------------------------------------------------
    1      C       0.4711928389     2.4702634876    -4.0293017421
    2      C      -0.4304275161     3.2868767312    -3.1141581478
    3      H      -0.4849997756     2.8413105302    -2.1051886725
    4      H      -0.0330219572     4.2985501055    -2.9564840124
    5      H      -1.4418946458     3.4092116475    -3.5368282440
    6      H       1.4690987929     2.3541677752    -3.5854527763
    7      H       0.5855085825     2.9627583898    -5.0034994727
    8      H       0.0731290800     1.4603452951    -4.2100707475
 ----------------------------------------------------------------

   10     -79.7452864450      1.00e-08  Convergence criterion met
 Total energy in the final basis set =      -79.7452864450

                    Orbital Energies (a.u.)
 --------------------------------------------------------------

 Alpha MOs
 -- Occupied --
-10.287 -10.286  -0.843  -0.699  -0.521  -0.515  -0.452  -0.424
 -0.418

                    Cartesian Multipole Moments
 -----------------------------------------------------------------
    Charge (ESU x 10^10)
                -0.0000
    Dipole Moment (Debye)
         X       0.0237      Y       0.0189      Z       0.0022
       Tot       0.0303
    Quadrupole Moments (Debye-Ang)
        XX     -14.9828     XY       0.1931     YY     -14.7918
        XZ       0.2229     YZ      -0.2329     ZZ     -14.9040

 Frequency:       321.99                 817.81                 841.46
 Force Cnst:      0.0616                 0.4174                 0.4413
 Red. Mass:       1.0079                 1.0592                 1.0578
 IR Intens:        0.009                  6.036                  5.049
 Frequency:      1033.55                1206.97                1219.63
 Force Cnst:      1.8059                 1.2662                 1.2930
 Red. Mass:       2.8693                 1.4752                 1.4754
 IR Intens:        0.000                  0.028                  0.020
 Frequency:      1388.87                1430.57                1478.70
 Force Cnst:      1.3624                 1.5884                 1.3346
 Red. Mass:       1.1988                 1.3173                 1.0360
 IR Intens:        0.774                  0.061                  5.498
 Frequency:      1482.22                1487.93                1497.76
 Force Cnst:      1.3443                 1.3542                 1.3702
 Red. Mass:       1.0386                 1.0382                 1.0367
 IR Intens:        5.327                  5.514                  4.372
 Frequency:      3036.66                3067.38                3124.92
 Force Cnst:      5.6574                 5.7535                 6.3539
 Red. Mass:       1.0413                 1.0379                 1.1044
 IR Intens:       29.208                 23.439                 15.174
 Frequency:      3143.33                3162.58                3175.60
 Force Cnst:      6.4042                 6.4943                 6.5632
 Red. Mass:       1.1001                 1.1020                 1.1046
 IR Intens:        2.633                 47.780                 32.141

 STANDARD THERMODYNAMIC QUANTITIES AT   298.15 K  AND     1.00 ATM

   This Molecule has  0 Imaginary Frequencies
   Zero point vibrational energy:       47.059 kcal/mol

   Atom    1 Element C  Has Mass   12.00000
   Atom    2 Element C  Has Mass   12.00000
   Atom    3 Element H  Has Mass    1.00783
   Atom    4 Element H  Has Mass    1.00783
   Atom    5 Element H  Has Mass    1.00783
   Atom    6 Element H  Has Mass    1.00783
   Atom    7 Element H  Has Mass    1.00783
   Atom    8 Element H  Has Mass    1.00783
   Molecular Mass:    30.046980 amu
   Principal axes and moments of inertia in amu*Bohr^2:
                             1           2           3
    Eigenvalues --       22.67738    89.85928    90.40296
          X              -0.58916     0.57625     0.56642
          Y               0.53959    -0.24119     0.80664
          Z               0.60144     0.78088    -0.16884
   Rotational Symmetry Number is   1
   The Molecule is an Asymmetric Top
   Translational Enthalpy:        0.889 kcal/mol
   Rotational Enthalpy:           0.889 kcal/mol
   Vibrational Enthalpy:         47.456 kcal/mol
   gas constant (RT):             0.592 kcal/mol
   Translational Entropy:        36.134  cal/mol.K
   Rotational Entropy:           19.849  cal/mol.K
   Vibrational Entropy:           1.914  cal/mol.K

   Total Enthalpy:               49.826 kcal/mol
   Total Entropy:                57.897  cal/mol.K

 Total job time:  28.90s(wall), 534.15s(cpu)
        *  Thank you very much for using Q-Chem.  Have a nice day.  *
