 Q-Chem 5.1, Q-Chem, Inc., Pleasanton, CA (2018)
 Q-Chem 5.1.1 for Intel X86 EM64T Linux

User input:
--------------------------------------------------------------
$rem
   JOBTYPE  freq
   EXCHANGE   wb97x-d
   BASIS   def2-svp
   UNRESTRICTED   False
   max_scf_cycles   250
   geom_opt_max_cycles   1
   SYM_IGNORE  TRUE
   print_input   true
   geom_opt_dmax   80
   pop_mulliken false
   XC_GRID 000075000302
$end

$molecule
0 1
H       0.5133862111     2.9036074077     -4.5518784673
C       -0.1937910403     3.5358543135     -5.1093355740
H       -1.2120298627     3.4498025152     -4.6991921445
H       0.1243940542     4.5799830043     -4.9989070922
H       -0.1819305940     3.2785362015     -6.1764052078
$end
--------------------------------------------------------------

             Standard Nuclear Orientation (Angstroms)
    I     Atom           X                Y                Z
 ----------------------------------------------------------------
    1      H       0.5133862111     2.9036074077    -4.5518784673
    2      C      -0.1937910403     3.5358543135    -5.1093355740
    3      H      -1.2120298627     3.4498025152    -4.6991921445
    4      H       0.1243940542     4.5799830043    -4.9989070922
    5      H      -0.1819305940     3.2785362015    -6.1764052078
 ----------------------------------------------------------------

    9     -40.4729361712      4.22e-09  Convergence criterion met
 Total energy in the final basis set =      -40.4729361712

                    Orbital Energies (a.u.)
 --------------------------------------------------------------

 Alpha MOs
 -- Occupied --
-10.284  -0.780  -0.475  -0.474  -0.468

                    Cartesian Multipole Moments
 -----------------------------------------------------------------
    Charge (ESU x 10^10)
                -0.0000
    Dipole Moment (Debye)
         X       0.0086      Y       0.0277      Z       0.0018
       Tot       0.0290
    Quadrupole Moments (Debye-Ang)
        XX      -8.2198     XY      -0.0233     YY      -8.1391
        XZ      -0.0453     YZ      -0.1321     ZZ      -8.2374

 Frequency:      1310.44                1330.69                1332.78
 Force Cnst:      1.1939                 1.2254                 1.2298
 Red. Mass:       1.1800                 1.1746                 1.1751
 IR Intens:       19.251                 15.146                 15.449
 Frequency:      1538.48                1541.86                3030.65
 Force Cnst:      1.4055                 1.4117                 5.4593
 Red. Mass:       1.0079                 1.0079                 1.0088
 IR Intens:        0.001                  0.002                  0.137
 Frequency:      3174.69                3185.42                3197.25
 Force Cnst:      6.5599                 6.5890                 6.6437
 Red. Mass:       1.1047                 1.1021                 1.1031
 IR Intens:       13.883                 15.122                 15.280

 STANDARD THERMODYNAMIC QUANTITIES AT   298.15 K  AND     1.00 ATM

   This Molecule has  0 Imaginary Frequencies
   Zero point vibrational energy:       28.080 kcal/mol

   Atom    1 Element H  Has Mass    1.00783
   Atom    2 Element C  Has Mass   12.00000
   Atom    3 Element H  Has Mass    1.00783
   Atom    4 Element H  Has Mass    1.00783
   Atom    5 Element H  Has Mass    1.00783
   Molecular Mass:    16.031320 amu
   Principal axes and moments of inertia in amu*Bohr^2:
                             1           2           3
    Eigenvalues --       11.45269    11.52274    11.80077
          X               0.93898     0.08381     0.33361
          Y              -0.33422    -0.00705     0.94247
          Z              -0.08134     0.99646    -0.02139
   Rotational Symmetry Number is   1
   The Molecule is an Asymmetric Top
   Translational Enthalpy:        0.889 kcal/mol
   Rotational Enthalpy:           0.889 kcal/mol
   Vibrational Enthalpy:         28.104 kcal/mol
   gas constant (RT):             0.592 kcal/mol
   Translational Entropy:        34.261  cal/mol.K
   Rotational Entropy:           15.106  cal/mol.K
   Vibrational Entropy:           0.094  cal/mol.K

   Total Enthalpy:               30.474 kcal/mol
   Total Entropy:                49.461  cal/mol.K

 Total job time:  14.37s(wall), 260.52s(cpu)
        *  Thank you very much for using Q-Chem.  Have a nice day.  *
