 Q-Chem 5.1, Q-Chem, Inc., Pleasanton, CA (2018)
 Q-Chem 5.1.1 for Intel X86 EM64T Linux

User input:
--------------------------------------------------------------
$rem
   JOBTYPE  freq
   EXCHANGE   wb97x-d
   BASIS   def2-svp
   UNRESTRICTED   False
   max_scf_cycles   250
   geom_opt_max_cycles   1
   SYM_IGNORE  TRUE
   print_input   true
   geom_opt_dmax   80
   pop_mulliken false
   XC_GRID 000075000302
$end

$molecule
0 1
C       17.9409882026     5.3822115945     9.3343186859
H       16.9441889941     3.4655026823     9.2385956153
C       16.8531919915     4.4669420640     8.7860234037
H       16.9967647046     4.3285839552     7.7017954135
H       15.2706810200     5.1107400540     10.1204489807
C       15.4449941153     5.0011804039     9.0355181505
H       14.6699032473     4.3256290948     8.6437554392
H       15.3164382548     5.9769818836     8.5325037893
H       17.8276106195     5.5262066016     10.4212124278
H       17.8993411151     6.3736934641     8.8562040970
H       18.9414687883     4.9620807996     9.1616342066
$end
--------------------------------------------------------------

             Standard Nuclear Orientation (Angstroms)
    I     Atom           X                Y                Z
 ----------------------------------------------------------------
    1      C      17.9409882026     5.3822115945     9.3343186859
    2      H      16.9441889941     3.4655026823     9.2385956153
    3      C      16.8531919915     4.4669420640     8.7860234037
    4      H      16.9967647046     4.3285839552     7.7017954135
    5      H      15.2706810200     5.1107400540    10.1204489807
    6      C      15.4449941153     5.0011804039     9.0355181505
    7      H      14.6699032473     4.3256290948     8.6437554392
    8      H      15.3164382548     5.9769818836     8.5325037893
    9      H      17.8276106195     5.5262066016    10.4212124278
   10      H      17.8993411151     6.3736934641     8.8562040970
   11      H      18.9414687883     4.9620807996     9.1616342066
 ----------------------------------------------------------------

   12    -119.0205934210      1.05e-09  Convergence criterion met
 Total energy in the final basis set =     -119.0205934210

                    Orbital Energies (a.u.)
 --------------------------------------------------------------

 Alpha MOs
 -- Occupied --
-10.290 -10.285 -10.285  -0.871  -0.767  -0.667  -0.543  -0.521
 -0.479  -0.463  -0.419  -0.414  -0.405

                    Cartesian Multipole Moments
 -----------------------------------------------------------------
    Charge (ESU x 10^10)
                 0.0000
    Dipole Moment (Debye)
         X       0.0165      Y      -0.0570      Z      -0.0300
       Tot       0.0665
    Quadrupole Moments (Debye-Ang)
        XX     -21.4177     XY      -0.8562     YY     -22.1957
        XZ      -0.3517     YZ      -0.9106     ZZ     -21.8799

 Frequency:       242.09                 317.49                 373.66
 Force Cnst:      0.0360                 0.0665                 0.1675
 Red. Mass:       1.0435                 1.1203                 2.0363
 IR Intens:        0.000                  0.007                  0.117
 Frequency:       765.51                 895.02                 924.46
 Force Cnst:      0.3735                 1.1271                 0.5551
 Red. Mass:       1.0818                 2.3880                 1.1025
 IR Intens:        3.798                  1.166                  0.023
 Frequency:       935.54                1088.07                1180.24
 Force Cnst:      0.6090                 1.5184                 1.4960
 Red. Mass:       1.1810                 2.1768                 1.8228
 IR Intens:        2.443                  0.286                  1.525
 Frequency:      1213.46                1314.84                1357.62
 Force Cnst:      1.4402                 1.1479                 1.4378
 Red. Mass:       1.6601                 1.1269                 1.3240
 IR Intens:        0.373                  0.001                  1.314
 Frequency:      1411.75                1412.72                1472.76
 Force Cnst:      1.4869                 1.6814                 1.3220
 Red. Mass:       1.2663                 1.4299                 1.0344
 IR Intens:        3.104                  7.624                  0.559
 Frequency:      1474.10                1478.21                1492.46
 Force Cnst:      1.3314                 1.3688                 1.4377
 Red. Mass:       1.0399                 1.0632                 1.0955
 IR Intens:        0.814                  1.325                  5.080
 Frequency:      1494.35                3020.49                3046.31
 Force Cnst:      1.3667                 5.5814                 5.6749
 Red. Mass:       1.0387                 1.0383                 1.0379
 IR Intens:       13.320                 24.726                 26.758
 Frequency:      3056.50                3098.56                3120.14
 Force Cnst:      5.8490                 6.2444                 6.3444
 Red. Mass:       1.0626                 1.1039                 1.1061
 IR Intens:       30.515                  0.617                 23.183
 Frequency:      3137.98                3140.41                3156.34
 Force Cnst:      6.4057                 6.3969                 6.4736
 Red. Mass:       1.1041                 1.1009                 1.1029
 IR Intens:       52.082                 31.138                 27.801

 STANDARD THERMODYNAMIC QUANTITIES AT   298.15 K  AND     1.00 ATM

   This Molecule has  0 Imaginary Frequencies
   Zero point vibrational energy:       65.219 kcal/mol

   Atom    1 Element C  Has Mass   12.00000
   Atom    2 Element H  Has Mass    1.00783
   Atom    3 Element C  Has Mass   12.00000
   Atom    4 Element H  Has Mass    1.00783
   Atom    5 Element H  Has Mass    1.00783
   Atom    6 Element C  Has Mass   12.00000
   Atom    7 Element H  Has Mass    1.00783
   Atom    8 Element H  Has Mass    1.00783
   Atom    9 Element H  Has Mass    1.00783
   Atom   10 Element H  Has Mass    1.00783
   Atom   11 Element H  Has Mass    1.00783
   Molecular Mass:    44.062640 amu
   Principal axes and moments of inertia in amu*Bohr^2:
                             1           2           3
    Eigenvalues --       61.31231   214.46761   241.38537
          X               0.98151    -0.18897    -0.03058
          Y               0.15048     0.86040    -0.48690
          Z               0.11832     0.47330     0.87292
   Rotational Symmetry Number is   1
   The Molecule is an Asymmetric Top
   Translational Enthalpy:        0.889 kcal/mol
   Rotational Enthalpy:           0.889 kcal/mol
   Vibrational Enthalpy:         66.218 kcal/mol
   gas constant (RT):             0.592 kcal/mol
   Translational Entropy:        37.275  cal/mol.K
   Rotational Entropy:           22.677  cal/mol.K
   Vibrational Entropy:           5.097  cal/mol.K

   Total Enthalpy:               68.588 kcal/mol
   Total Entropy:                65.049  cal/mol.K

 Total job time:  50.96s(wall), 990.20s(cpu)
        *  Thank you very much for using Q-Chem.  Have a nice day.  *
