 Q-Chem 5.1, Q-Chem, Inc., Pleasanton, CA (2018)
 Q-Chem 5.1.1 for Intel X86 EM64T Linux

User input:
--------------------------------------------------------------
$rem
   JOBTYPE  freq
   EXCHANGE   wb97x-d
   BASIS   def2-svp
   UNRESTRICTED   False
   max_scf_cycles   250
   geom_opt_max_cycles   1
   SYM_IGNORE  TRUE
   print_input   true
   geom_opt_dmax   80
   pop_mulliken false
   XC_GRID 000075000302
$end

$molecule
0 1
C       16.8020413789     5.1428254160     8.4025575031
H       15.5517218060     6.8807756561     8.2274322590
C       15.6108743773     5.9778286695     8.8638352423
H       15.8015366961     6.3044524901     9.9030114818
H       14.0816605618     4.8588999310     7.7893058841
C       14.2877560214     5.2187097367     8.8087592065
H       13.4334185179     5.8418693512     9.1148226255
H       14.3201297414     4.3379054948     9.4692715435
H       16.6562205281     4.8045215196     7.3657524029
H       16.9190476663     4.2505916780     9.0372454930
H       17.7414245734     5.7116685615     8.4438450737
$end
--------------------------------------------------------------

             Standard Nuclear Orientation (Angstroms)
    I     Atom           X                Y                Z
 ----------------------------------------------------------------
    1      C      16.8020413789     5.1428254160     8.4025575031
    2      H      15.5517218060     6.8807756561     8.2274322590
    3      C      15.6108743773     5.9778286695     8.8638352423
    4      H      15.8015366961     6.3044524901     9.9030114818
    5      H      14.0816605618     4.8588999310     7.7893058841
    6      C      14.2877560214     5.2187097367     8.8087592065
    7      H      13.4334185179     5.8418693512     9.1148226255
    8      H      14.3201297414     4.3379054948     9.4692715435
    9      H      16.6562205281     4.8045215196     7.3657524029
   10      H      16.9190476663     4.2505916780     9.0372454930
   11      H      17.7414245734     5.7116685615     8.4438450737
 ----------------------------------------------------------------

   12    -119.0205871377      1.10e-09  Convergence criterion met
 Total energy in the final basis set =     -119.0205871377

                    Orbital Energies (a.u.)
 --------------------------------------------------------------

 Alpha MOs
 -- Occupied --
-10.291 -10.285 -10.284  -0.871  -0.767  -0.667  -0.544  -0.521
 -0.480  -0.461  -0.420  -0.412  -0.406

                    Cartesian Multipole Moments
 -----------------------------------------------------------------
    Charge (ESU x 10^10)
                 0.0000
    Dipole Moment (Debye)
         X       0.0027      Y       0.0373      Z       0.0121
       Tot       0.0394
    Quadrupole Moments (Debye-Ang)
        XX     -21.8119     XY       0.6236     YY     -21.3229
        XZ       0.3392     YZ       0.2037     ZZ     -21.1003

 Frequency:       215.96                 285.76                 374.02
 Force Cnst:      0.0282                 0.0548                 0.1676
 Red. Mass:       1.0277                 1.1396                 2.0332
 IR Intens:        0.001                  0.003                  0.102
 Frequency:       771.33                 892.22                 918.32
 Force Cnst:      0.3767                 1.1192                 0.5505
 Red. Mass:       1.0748                 2.3863                 1.1079
 IR Intens:        3.696                  1.130                  0.016
 Frequency:       934.25                1087.50                1178.97
 Force Cnst:      0.6082                 1.5397                 1.4957
 Red. Mass:       1.1827                 2.2096                 1.8263
 IR Intens:        2.411                  0.381                  1.593
 Frequency:      1211.87                1320.15                1359.48
 Force Cnst:      1.4467                 1.1536                 1.4246
 Red. Mass:       1.6719                 1.1235                 1.3082
 IR Intens:        0.560                  0.002                  1.152
 Frequency:      1408.90                1412.91                1470.90
 Force Cnst:      1.5483                 1.6080                 1.3179
 Red. Mass:       1.3239                 1.3671                 1.0339
 IR Intens:        4.570                  5.556                  0.094
 Frequency:      1472.42                1478.58                1489.62
 Force Cnst:      1.3328                 1.3699                 1.3584
 Red. Mass:       1.0434                 1.0635                 1.0390
 IR Intens:        0.128                  1.699                 14.446
 Frequency:      1491.83                3020.42                3050.11
 Force Cnst:      1.4286                 5.7021                 5.6850
 Red. Mass:       1.0895                 1.0608                 1.0372
 IR Intens:        5.022                 34.264                 26.926
 Frequency:      3055.47                3078.20                3143.66
 Force Cnst:      5.7057                 6.1729                 6.4295
 Red. Mass:       1.0373                 1.1057                 1.1042
 IR Intens:       23.016                 14.107                 16.315
 Frequency:      3146.93                3149.63                3161.94
 Force Cnst:      6.4417                 6.4513                 6.5031
 Red. Mass:       1.1040                 1.1038                 1.1040
 IR Intens:       18.309                 55.808                 27.531

 STANDARD THERMODYNAMIC QUANTITIES AT   298.15 K  AND     1.00 ATM

   This Molecule has  0 Imaginary Frequencies
   Zero point vibrational energy:       65.162 kcal/mol

   Atom    1 Element C  Has Mass   12.00000
   Atom    2 Element H  Has Mass    1.00783
   Atom    3 Element C  Has Mass   12.00000
   Atom    4 Element H  Has Mass    1.00783
   Atom    5 Element H  Has Mass    1.00783
   Atom    6 Element C  Has Mass   12.00000
   Atom    7 Element H  Has Mass    1.00783
   Atom    8 Element H  Has Mass    1.00783
   Atom    9 Element H  Has Mass    1.00783
   Atom   10 Element H  Has Mass    1.00783
   Atom   11 Element H  Has Mass    1.00783
   Molecular Mass:    44.062640 amu
   Principal axes and moments of inertia in amu*Bohr^2:
                             1           2           3
    Eigenvalues --       61.08472   215.24304   242.05323
          X               0.98691     0.07667     0.14187
          Y              -0.02840     0.94864    -0.31509
          Z              -0.15874     0.30693     0.93840
   Rotational Symmetry Number is   1
   The Molecule is an Asymmetric Top
   Translational Enthalpy:        0.889 kcal/mol
   Rotational Enthalpy:           0.889 kcal/mol
   Vibrational Enthalpy:         66.210 kcal/mol
   gas constant (RT):             0.592 kcal/mol
   Translational Entropy:        37.275  cal/mol.K
   Rotational Entropy:           22.680  cal/mol.K
   Vibrational Entropy:           5.477  cal/mol.K

   Total Enthalpy:               68.580 kcal/mol
   Total Entropy:                65.432  cal/mol.K

 Total job time:  47.84s(wall), 942.82s(cpu)
        *  Thank you very much for using Q-Chem.  Have a nice day.  *
