 Q-Chem 5.1, Q-Chem, Inc., Pleasanton, CA (2018)
 Q-Chem 5.1.1 for Intel X86 EM64T Linux

User input:
--------------------------------------------------------------
$rem
   JOBTYPE  freq
   EXCHANGE   wb97x-d
   BASIS   def2-svp
   UNRESTRICTED   False
   max_scf_cycles   250
   geom_opt_max_cycles   1
   SYM_IGNORE  TRUE
   print_input   true
   geom_opt_dmax   80
   pop_mulliken false
   XC_GRID 000075000302
$end

$molecule
0 1
H       0.6920823760     1.9501330950     -5.3635818069
C       0.1274116191     2.7192934306     -5.9190203634
H       -0.9575425095     2.5286062716     -5.8370220255
C       0.4590169431     4.0994912977     -5.3667452292
H       0.4036751540     2.6325505876     -6.9797067978
H       -0.0552119787     4.8898323935     -5.9319656716
H       1.5387854032     4.2883776691     -5.4345168737
H       0.1713969463     4.1928912441     -4.3094617339
$end
--------------------------------------------------------------

             Standard Nuclear Orientation (Angstroms)
    I     Atom           X                Y                Z
 ----------------------------------------------------------------
    1      H       0.6920823760     1.9501330950    -5.3635818069
    2      C       0.1274116191     2.7192934306    -5.9190203634
    3      H      -0.9575425095     2.5286062716    -5.8370220255
    4      C       0.4590169431     4.0994912977    -5.3667452292
    5      H       0.4036751540     2.6325505876    -6.9797067978
    6      H      -0.0552119787     4.8898323935    -5.9319656716
    7      H       1.5387854032     4.2883776691    -5.4345168737
    8      H       0.1713969463     4.1928912441    -4.3094617339
 ----------------------------------------------------------------

   10     -79.7453461433      8.20e-09  Convergence criterion met
 Total energy in the final basis set =      -79.7453461433

                    Orbital Energies (a.u.)
 --------------------------------------------------------------

 Alpha MOs
 -- Occupied --
-10.287 -10.286  -0.843  -0.698  -0.521  -0.518  -0.449  -0.422
 -0.420

                    Cartesian Multipole Moments
 -----------------------------------------------------------------
    Charge (ESU x 10^10)
                 0.0000
    Dipole Moment (Debye)
         X       0.0127      Y       0.0079      Z      -0.0063
       Tot       0.0162
    Quadrupole Moments (Debye-Ang)
        XX     -14.7030     XY      -0.1543     YY     -15.2923
        XZ      -0.1042     YZ      -0.2693     ZZ     -14.7023

 Frequency:       344.70                 826.33                 842.20
 Force Cnst:      0.0706                 0.4253                 0.4419
 Red. Mass:       1.0079                 1.0573                 1.0573
 IR Intens:        0.005                  5.021                  4.775
 Frequency:      1034.12                1214.21                1221.65
 Force Cnst:      1.8335                 1.2752                 1.2939
 Red. Mass:       2.9100                 1.4681                 1.4714
 IR Intens:        0.003                  0.002                  0.009
 Frequency:      1384.35                1423.78                1482.50
 Force Cnst:      1.3535                 1.5682                 1.3379
 Red. Mass:       1.1987                 1.3130                 1.0332
 IR Intens:        1.050                  0.018                  3.937
 Frequency:      1484.33                1485.94                1490.72
 Force Cnst:      1.3474                 1.3582                 1.3552
 Red. Mass:       1.0379                 1.0440                 1.0350
 IR Intens:        5.361                  6.341                  4.337
 Frequency:      3026.34                3067.41                3118.86
 Force Cnst:      5.5996                 5.7490                 6.3364
 Red. Mass:       1.0377                 1.0370                 1.1056
 IR Intens:       27.760                 24.854                 13.818
 Frequency:      3142.87                3165.10                3170.06
 Force Cnst:      6.4100                 6.5198                 6.5358
 Red. Mass:       1.1014                 1.1046                 1.1039
 IR Intens:        5.519                 40.644                 35.997

 STANDARD THERMODYNAMIC QUANTITIES AT   298.15 K  AND     1.00 ATM

   This Molecule has  0 Imaginary Frequencies
   Zero point vibrational energy:       47.069 kcal/mol

   Atom    1 Element H  Has Mass    1.00783
   Atom    2 Element C  Has Mass   12.00000
   Atom    3 Element H  Has Mass    1.00783
   Atom    4 Element C  Has Mass   12.00000
   Atom    5 Element H  Has Mass    1.00783
   Atom    6 Element H  Has Mass    1.00783
   Atom    7 Element H  Has Mass    1.00783
   Atom    8 Element H  Has Mass    1.00783
   Molecular Mass:    30.046980 amu
   Principal axes and moments of inertia in amu*Bohr^2:
                             1           2           3
    Eigenvalues --       22.88047    89.66782    89.92831
          X               0.21718     0.88562    -0.41050
          Y               0.90556    -0.33979    -0.25397
          Z               0.36441     0.31658     0.87578
   Rotational Symmetry Number is   1
   The Molecule is an Asymmetric Top
   Translational Enthalpy:        0.889 kcal/mol
   Rotational Enthalpy:           0.889 kcal/mol
   Vibrational Enthalpy:         47.449 kcal/mol
   gas constant (RT):             0.592 kcal/mol
   Translational Entropy:        36.134  cal/mol.K
   Rotational Entropy:           19.851  cal/mol.K
   Vibrational Entropy:           1.797  cal/mol.K

   Total Enthalpy:               49.819 kcal/mol
   Total Entropy:                57.781  cal/mol.K

 Total job time:  21.24s(wall), 503.79s(cpu)
        *  Thank you very much for using Q-Chem.  Have a nice day.  *
