 Q-Chem 5.1, Q-Chem, Inc., Pleasanton, CA (2018)
 Q-Chem 5.1.1 for Intel X86 EM64T Linux

User input:
--------------------------------------------------------------
$rem
   JOBTYPE  freq
   EXCHANGE   wb97x-d
   BASIS   def2-svp
   UNRESTRICTED   False
   max_scf_cycles   250
   geom_opt_max_cycles   1
   SYM_IGNORE  TRUE
   print_input   true
   geom_opt_dmax   80
   pop_mulliken false
   XC_GRID 000075000302
$end

$molecule
0 1
H       0.7730835136     0.0625877098     0.7823231511
C       -0.0019167152     0.0017799180     0.0036888990
H       -0.3378227227     1.0049747784     -0.3015979669
H       0.4374666476     -0.4859706934     -0.8753347231
H       -0.8499054393     -0.6027849733     0.3506864499
$end
--------------------------------------------------------------

             Standard Nuclear Orientation (Angstroms)
    I     Atom           X                Y                Z
 ----------------------------------------------------------------
    1      H       0.7730835136     0.0625877098     0.7823231511
    2      C      -0.0019167152     0.0017799180     0.0036888990
    3      H      -0.3378227227     1.0049747784    -0.3015979669
    4      H       0.4374666476    -0.4859706934    -0.8753347231
    5      H      -0.8499054393    -0.6027849733     0.3506864499
 ----------------------------------------------------------------

    9     -40.4729357130      4.22e-09  Convergence criterion met
 Total energy in the final basis set =      -40.4729357130

                    Orbital Energies (a.u.)
 --------------------------------------------------------------

 Alpha MOs
 -- Occupied --
-10.284  -0.780  -0.475  -0.474  -0.468

                    Cartesian Multipole Moments
 -----------------------------------------------------------------
    Charge (ESU x 10^10)
                -0.0000
    Dipole Moment (Debye)
         X       0.0109      Y      -0.0138      Z      -0.0230
       Tot       0.0290
    Quadrupole Moments (Debye-Ang)
        XX      -8.2302     XY       0.0187     YY      -8.2520
        XZ       0.0402     YZ      -0.0639     ZZ      -8.2889

 Frequency:      1310.11                1329.52                1333.25
 Force Cnst:      1.1933                 1.2234                 1.2306
 Red. Mass:       1.1800                 1.1747                 1.1750
 IR Intens:       19.221                 15.101                 15.495
 Frequency:      1538.77                1541.18                3030.91
 Force Cnst:      1.4061                 1.4105                 5.4605
 Red. Mass:       1.0079                 1.0079                 1.0089
 IR Intens:        0.001                  0.002                  0.142
 Frequency:      3174.65                3184.73                3198.78
 Force Cnst:      6.5626                 6.5802                 6.6528
 Red. Mass:       1.1052                 1.1011                 1.1035
 IR Intens:       13.765                 15.564                 14.972

 STANDARD THERMODYNAMIC QUANTITIES AT   298.15 K  AND     1.00 ATM

   This Molecule has  0 Imaginary Frequencies
   Zero point vibrational energy:       28.079 kcal/mol

   Atom    1 Element H  Has Mass    1.00783
   Atom    2 Element C  Has Mass   12.00000
   Atom    3 Element H  Has Mass    1.00783
   Atom    4 Element H  Has Mass    1.00783
   Atom    5 Element H  Has Mass    1.00783
   Molecular Mass:    16.031320 amu
   Principal axes and moments of inertia in amu*Bohr^2:
                             1           2           3
    Eigenvalues --       11.45269    11.52274    11.80077
          X               0.47538     0.81435    -0.33294
          Y              -0.60373     0.57722     0.54984
          Z               0.63994    -0.06038     0.76605
   Rotational Symmetry Number is   1
   The Molecule is an Asymmetric Top
   Translational Enthalpy:        0.889 kcal/mol
   Rotational Enthalpy:           0.889 kcal/mol
   Vibrational Enthalpy:         28.104 kcal/mol
   gas constant (RT):             0.592 kcal/mol
   Translational Entropy:        34.261  cal/mol.K
   Rotational Entropy:           15.106  cal/mol.K
   Vibrational Entropy:           0.094  cal/mol.K

   Total Enthalpy:               30.474 kcal/mol
   Total Entropy:                49.462  cal/mol.K

 Total job time:  15.01s(wall), 264.93s(cpu)
        *  Thank you very much for using Q-Chem.  Have a nice day.  *
